<?xml version="1.0"?>
<VTKFile type="UnstructuredGrid"  version="0.1"  >
<UnstructuredGrid>
<Piece  NumberOfPoints="441" NumberOfCells="800">
<Points>
<DataArray  type="Float64"  NumberOfComponents="3"  format="ascii">0 0 0  0.05 0 0  0.1 0 0  0.15 0 0  0.2 0 0  0.25 0 0  0.3 0 0  0.35 0 0  0.4 0 0  0.45 0 0  0.5 0 0  0.55 0 0  0.6 0 0  0.65 0 0  0.7 0 0  0.75 0 0  0.8 0 0  0.85 0 0  0.9 0 0  0.95 0 0  1 0 0  0 0.05 0  0.05 0.05 0  0.1 0.05 0  0.15 0.05 0  0.2 0.05 0  0.25 0.05 0  0.3 0.05 0  0.35 0.05 0  0.4 0.05 0  0.45 0.05 0  0.5 0.05 0  0.55 0.05 0  0.6 0.05 0  0.65 0.05 0  0.7 0.05 0  0.75 0.05 0  0.8 0.05 0  0.85 0.05 0  0.9 0.05 0  0.95 0.05 0  1 0.05 0  0 0.1 0  0.05 0.1 0  0.1 0.1 0  0.15 0.1 0  0.2 0.1 0  0.25 0.1 0  0.3 0.1 0  0.35 0.1 0  0.4 0.1 0  0.45 0.1 0  0.5 0.1 0  0.55 0.1 0  0.6 0.1 0  0.65 0.1 0  0.7 0.1 0  0.75 0.1 0  0.8 0.1 0  0.85 0.1 0  0.9 0.1 0  0.95 0.1 0  1 0.1 0  0 0.15 0  0.05 0.15 0  0.1 0.15 0  0.15 0.15 0  0.2 0.15 0  0.25 0.15 0  0.3 0.15 0  0.35 0.15 0  0.4 0.15 0  0.45 0.15 0  0.5 0.15 0  0.55 0.15 0  0.6 0.15 0  0.65 0.15 0  0.7 0.15 0  0.75 0.15 0  0.8 0.15 0  0.85 0.15 0  0.9 0.15 0  0.95 0.15 0  1 0.15 0  0 0.2 0  0.05 0.2 0  0.1 0.2 0  0.15 0.2 0  0.2 0.2 0  0.25 0.2 0  0.3 0.2 0  0.35 0.2 0  0.4 0.2 0  0.45 0.2 0  0.5 0.2 0  0.55 0.2 0  0.6 0.2 0  0.65 0.2 0  0.7 0.2 0  0.75 0.2 0  0.8 0.2 0  0.85 0.2 0  0.9 0.2 0  0.95 0.2 0  1 0.2 0  0 0.25 0  0.05 0.25 0  0.1 0.25 0  0.15 0.25 0  0.2 0.25 0  0.25 0.25 0  0.3 0.25 0  0.35 0.25 0  0.4 0.25 0  0.45 0.25 0  0.5 0.25 0  0.55 0.25 0  0.6 0.25 0  0.65 0.25 0  0.7 0.25 0  0.75 0.25 0  0.8 0.25 0  0.85 0.25 0  0.9 0.25 0  0.95 0.25 0  1 0.25 0  0 0.3 0  0.05 0.3 0  0.1 0.3 0  0.15 0.3 0  0.2 0.3 0  0.25 0.3 0  0.3 0.3 0  0.35 0.3 0  0.4 0.3 0  0.45 0.3 0  0.5 0.3 0  0.55 0.3 0  0.6 0.3 0  0.65 0.3 0  0.7 0.3 0  0.75 0.3 0  0.8 0.3 0  0.85 0.3 0  0.9 0.3 0  0.95 0.3 0  1 0.3 0  0 0.35 0  0.05 0.35 0  0.1 0.35 0  0.15 0.35 0  0.2 0.35 0  0.25 0.35 0  0.3 0.35 0  0.35 0.35 0  0.4 0.35 0  0.45 0.35 0  0.5 0.35 0  0.55 0.35 0  0.6 0.35 0  0.65 0.35 0  0.7 0.35 0  0.75 0.35 0  0.8 0.35 0  0.85 0.35 0  0.9 0.35 0  0.95 0.35 0  1 0.35 0  0 0.4 0  0.05 0.4 0  0.1 0.4 0  0.15 0.4 0  0.2 0.4 0  0.25 0.4 0  0.3 0.4 0  0.35 0.4 0  0.4 0.4 0  0.45 0.4 0  0.5 0.4 0  0.55 0.4 0  0.6 0.4 0  0.65 0.4 0  0.7 0.4 0  0.75 0.4 0  0.8 0.4 0  0.85 0.4 0  0.9 0.4 0  0.95 0.4 0  1 0.4 0  0 0.45 0  0.05 0.45 0  0.1 0.45 0  0.15 0.45 0  0.2 0.45 0  0.25 0.45 0  0.3 0.45 0  0.35 0.45 0  0.4 0.45 0  0.45 0.45 0  0.5 0.45 0  0.55 0.45 0  0.6 0.45 0  0.65 0.45 0  0.7 0.45 0  0.75 0.45 0  0.8 0.45 0  0.85 0.45 0  0.9 0.45 0  0.95 0.45 0  1 0.45 0  0 0.5 0  0.05 0.5 0  0.1 0.5 0  0.15 0.5 0  0.2 0.5 0  0.25 0.5 0  0.3 0.5 0  0.35 0.5 0  0.4 0.5 0  0.45 0.5 0  0.5 0.5 0  0.55 0.5 0  0.6 0.5 0  0.65 0.5 0  0.7 0.5 0  0.75 0.5 0  0.8 0.5 0  0.85 0.5 0  0.9 0.5 0  0.95 0.5 0  1 0.5 0  0 0.55 0  0.05 0.55 0  0.1 0.55 0  0.15 0.55 0  0.2 0.55 0  0.25 0.55 0  0.3 0.55 0  0.35 0.55 0  0.4 0.55 0  0.45 0.55 0  0.5 0.55 0  0.55 0.55 0  0.6 0.55 0  0.65 0.55 0  0.7 0.55 0  0.75 0.55 0  0.8 0.55 0  0.85 0.55 0  0.9 0.55 0  0.95 0.55 0  1 0.55 0  0 0.6 0  0.05 0.6 0  0.1 0.6 0  0.15 0.6 0  0.2 0.6 0  0.25 0.6 0  0.3 0.6 0  0.35 0.6 0  0.4 0.6 0  0.45 0.6 0  0.5 0.6 0  0.55 0.6 0  0.6 0.6 0  0.65 0.6 0  0.7 0.6 0  0.75 0.6 0  0.8 0.6 0  0.85 0.6 0  0.9 0.6 0  0.95 0.6 0  1 0.6 0  0 0.65 0  0.05 0.65 0  0.1 0.65 0  0.15 0.65 0  0.2 0.65 0  0.25 0.65 0  0.3 0.65 0  0.35 0.65 0  0.4 0.65 0  0.45 0.65 0  0.5 0.65 0  0.55 0.65 0  0.6 0.65 0  0.65 0.65 0  0.7 0.65 0  0.75 0.65 0  0.8 0.65 0  0.85 0.65 0  0.9 0.65 0  0.95 0.65 0  1 0.65 0  0 0.7 0  0.05 0.7 0  0.1 0.7 0  0.15 0.7 0  0.2 0.7 0  0.25 0.7 0  0.3 0.7 0  0.35 0.7 0  0.4 0.7 0  0.45 0.7 0  0.5 0.7 0  0.55 0.7 0  0.6 0.7 0  0.65 0.7 0  0.7 0.7 0  0.75 0.7 0  0.8 0.7 0  0.85 0.7 0  0.9 0.7 0  0.95 0.7 0  1 0.7 0  0 0.75 0  0.05 0.75 0  0.1 0.75 0  0.15 0.75 0  0.2 0.75 0  0.25 0.75 0  0.3 0.75 0  0.35 0.75 0  0.4 0.75 0  0.45 0.75 0  0.5 0.75 0  0.55 0.75 0  0.6 0.75 0  0.65 0.75 0  0.7 0.75 0  0.75 0.75 0  0.8 0.75 0  0.85 0.75 0  0.9 0.75 0  0.95 0.75 0  1 0.75 0  0 0.8 0  0.05 0.8 0  0.1 0.8 0  0.15 0.8 0  0.2 0.8 0  0.25 0.8 0  0.3 0.8 0  0.35 0.8 0  0.4 0.8 0  0.45 0.8 0  0.5 0.8 0  0.55 0.8 0  0.6 0.8 0  0.65 0.8 0  0.7 0.8 0  0.75 0.8 0  0.8 0.8 0  0.85 0.8 0  0.9 0.8 0  0.95 0.8 0  1 0.8 0  0 0.85 0  0.05 0.85 0  0.1 0.85 0  0.15 0.85 0  0.2 0.85 0  0.25 0.85 0  0.3 0.85 0  0.35 0.85 0  0.4 0.85 0  0.45 0.85 0  0.5 0.85 0  0.55 0.85 0  0.6 0.85 0  0.65 0.85 0  0.7 0.85 0  0.75 0.85 0  0.8 0.85 0  0.85 0.85 0  0.9 0.85 0  0.95 0.85 0  1 0.85 0  0 0.9 0  0.05 0.9 0  0.1 0.9 0  0.15 0.9 0  0.2 0.9 0  0.25 0.9 0  0.3 0.9 0  0.35 0.9 0  0.4 0.9 0  0.45 0.9 0  0.5 0.9 0  0.55 0.9 0  0.6 0.9 0  0.65 0.9 0  0.7 0.9 0  0.75 0.9 0  0.8 0.9 0  0.85 0.9 0  0.9 0.9 0  0.95 0.9 0  1 0.9 0  0 0.95 0  0.05 0.95 0  0.1 0.95 0  0.15 0.95 0  0.2 0.95 0  0.25 0.95 0  0.3 0.95 0  0.35 0.95 0  0.4 0.95 0  0.45 0.95 0  0.5 0.95 0  0.55 0.95 0  0.6 0.95 0  0.65 0.95 0  0.7 0.95 0  0.75 0.95 0  0.8 0.95 0  0.85 0.95 0  0.9 0.95 0  0.95 0.95 0  1 0.95 0  0 1 0  0.05 1 0  0.1 1 0  0.15 1 0  0.2 1 0  0.25 1 0  0.3 1 0  0.35 1 0  0.4 1 0  0.45 1 0  0.5 1 0  0.55 1 0  0.6 1 0  0.65 1 0  0.7 1 0  0.75 1 0  0.8 1 0  0.85 1 0  0.9 1 0  0.95 1 0  1 1 0  </DataArray>
</Points>
<Cells>
[...]
<PointData  Scalars="f_8"> 
<DataArray  type="Float64"  Name="f_8"  format="ascii">-2.5000000000000000e-01  -2.6216155028032129e-01  -2.7354357092630260e-01  -2.8399621706029049e-01  -2.9337771774795257e-01  -3.0155756235524517e-01  -3.0841951498918579e-01  -3.1386435993853212e-01  -3.1781228758035118e-01  -3.2020484059593046e-01  -3.2100635417193535e-01  -3.2020484059593046e-01  -3.1781228758035118e-01  -3.1386435993853212e-01  -3.0841951498918579e-01  -3.0155756235524517e-01  -2.9337771774795257e-01  -2.8399621706029049e-01  -2.7354357092630260e-01  -2.6216155028032129e-01  -2.5000000000000000e-01  -2.3840261828315659e-01  -2.4844823313994552e-01  -2.5801569511960942e-01  -2.6689786310876840e-01  -2.7492857299834522e-01  -2.8196707238657237e-01  -2.8789361998376245e-01  -2.9260876751577181e-01  -2.9603388065809683e-01  -2.9811198492433555e-01  -2.9880854409931534e-01  -2.9811198492433538e-01  -2.9603388065809677e-01  -2.9260876751577158e-01  -2.8789361998376228e-01  -2.8196707238657220e-01  -2.7492857299834500e-01  -2.6689786310876817e-01  -2.5801569511960926e-01  -2.4844823313994549e-01  -2.3840261828315659e-01  -2.2848279631780705e-01  -2.3671306887669491e-01  -2.4467311330342120e-01  -2.5215096725682817e-01  -2.5897163875008733e-01  -2.6498853420893648e-01  -2.7007912504351961e-01  -2.7414320948269560e-01  -2.7710248261192905e-01  -2.7890067434399912e-01  -2.7950385237665520e-01  -2.7890067434399896e-01  -2.7710248261192888e-01  -2.7414320948269538e-01  -2.7007912504351950e-01  -2.6498853420893637e-01  -2.5897163875008711e-01  -2.5215096725682790e-01  -2.4467311330342090e-01  -2.3671306887669480e-01  -2.2848279631780705e-01  -2.2007335395855529e-01  -2.2674813274560590e-01  -2.3331272196055214e-01  -2.3956125386503568e-01  -2.4531848053623934e-01  -2.5043630065556655e-01  -2.5479113649868379e-01  -2.5828246275956163e-01  -2.6083216596292452e-01  -2.6238437746307658e-01  -2.6290551671930706e-01  -2.6238437746307641e-01  -2.6083216596292425e-01  -2.5828246275956146e-01  -2.5479113649868379e-01  -2.5043630065556655e-01  -2.4531848053623914e-01  -2.3956125386503541e-01  -2.3331272196055183e-01  -2.2674813274560579e-01  -2.2007335395855529e-01  -2.1303594724155284e-01  -2.1839338618662119e-01  -2.2376838792814546e-01  -2.2896284570652300e-01  -2.3380472887426754e-01  -2.3814705137840672e-01  -2.4186665753608746e-01  -2.4486333909394242e-01  -2.4705934101713051e-01  -2.4839915282607544e-01  -2.4884945957442006e-01  -2.4839915282607533e-01  -2.4705934101713029e-01  -2.4486333909394226e-01  -2.4186665753608749e-01  -2.3814705137840669e-01  -2.3380472887426737e-01  -2.2896284570652273e-01  -2.2376838792814513e-01  -2.1839338618662096e-01  -2.1303594724155284e-01  -2.0725727954510009e-01  -2.1152107683118015e-01  -2.1590459785888533e-01  -2.2021701215864314e-01  -2.2429053787590092e-01  -2.2798051844770517e-01  -2.3116510317331715e-01  -2.3374489506298998e-01  -2.3564270618557950e-01  -2.3680343324967468e-01  -2.3719401592622211e-01  -2.3680343324967457e-01  -2.3564270618557928e-01  -2.3374489506298987e-01  -2.3116510317331720e-01  -2.2798051844770528e-01  -2.2429053787590086e-01  -2.2021701215864303e-01  -2.1590459785888516e-01  -2.1152107683118004e-01  -2.0725727954510009e-01  -2.0264606149254677e-01  -2.0602904373411385e-01  -2.0961191451757244e-01  -2.1321006719326324e-01  -2.1665989202298780e-01  -2.1981938136319590e-01  -2.2256834164648603e-01  -2.2480843179912074e-01  -2.2646315541252252e-01  -2.2747785806082166e-01  -2.2781973763111887e-01  -2.2747785806082158e-01  -2.2646315541252243e-01  -2.2480843179912074e-01  -2.2256834164648615e-01  -2.1981938136319609e-01  -2.1665989202298780e-01  -2.1321006719326327e-01  -2.0961191451757238e-01  -2.0602904373411385e-01  -2.0264606149254677e-01  -1.9913060537437299e-01  -2.0183712209515586e-01  -2.0480394928402726e-01  -2.0785145007384964e-01  -2.1081958165959097e-01  -2.1356877333560462e-01  -2.1598045025031043e-01  -2.1795733507448437e-01  -2.1942362560456805e-01  -2.2032510594997051e-01  -2.2062921847661005e-01  -2.2032510594997065e-01  -2.1942362560456810e-01  -2.1795733507448448e-01  -2.1598045025031060e-01  -2.1356877333560489e-01  -2.1081958165959114e-01  -2.0785145007384970e-01  -2.0480394928402726e-01  -2.0183712209515592e-01  -1.9913060537437299e-01  -1.9665696526663837e-01  -1.9888488998810935e-01  -2.0141531044953095e-01  -2.0407220215851696e-01  -2.0669821120592197e-01  -2.0915568006932128e-01  -2.1132735094466676e-01  -2.1311683264393833e-01  -2.1444890598129493e-01  -2.1526972165788255e-01  -2.1554692437538009e-01  -2.1526972165788250e-01  -2.1444890598129490e-01  -2.1311683264393838e-01  -2.1132735094466687e-01  -2.0915568006932150e-01  -2.0669821120592208e-01  -2.0407220215851701e-01  -2.0141531044953098e-01  -1.9888488998810933e-01  -1.9665696526663837e-01  -1.9518755520273143e-01  -1.9713016214111204e-01  -1.9940020036747036e-01  -2.0182383690476519e-01  -2.0424538093625860e-01  -2.0652838479109162e-01  -2.0855644081509675e-01  -2.1023373857530714e-01  -2.1148544401879060e-01  -2.1225795032488437e-01  -2.1251903570914527e-01  -2.1225795032488440e-01  -2.1148544401879060e-01  -2.1023373857530719e-01  -2.0855644081509697e-01  -2.0652838479109192e-01  -2.0424538093625863e-01  -2.0182383690476519e-01  -1.9940020036747030e-01  -1.9713016214111204e-01  -1.9518755520273143e-01  -1.9470019576785122e-01  -1.9654800300613712e-01  -1.9873149197447310e-01  -2.0107756415681480e-01  -2.0343109084325547e-01  -2.0565603734369001e-01  -2.0763628894932151e-01  -2.0927623682340279e-01  -2.1050118119367570e-01  -2.1125759991371909e-01  -2.1151331781143221e-01  -2.1125759991371923e-01  -2.1050118119367586e-01  -2.0927623682340310e-01  -2.0763628894932185e-01  -2.0565603734369031e-01  -2.0343109084325567e-01  -2.0107756415681485e-01  -1.9873149197447321e-01  -1.9654800300613715e-01  -1.9470019576785122e-01  -1.9518755520273143e-01  -1.9713016214111195e-01  -1.9940020036747025e-01  -2.0182383690476507e-01  -2.0424538093625849e-01  -2.0652838479109156e-01  -2.0855644081509661e-01  -2.1023373857530694e-01  -2.1148544401879030e-01  -2.1225795032488426e-01  -2.1251903570914518e-01  -2.1225795032488437e-01  -2.1148544401879060e-01  -2.1023373857530731e-01  -2.0855644081509700e-01  -2.0652838479109190e-01  -2.0424538093625877e-01  -2.0182383690476524e-01  -1.9940020036747041e-01  -1.9713016214111215e-01  -1.9518755520273143e-01  -1.9665696526663837e-01  -1.9888488998810919e-01  -2.0141531044953073e-01  -2.0407220215851676e-01  -2.0669821120592169e-01  -2.0915568006932098e-01  -2.1132735094466634e-01  -2.1311683264393799e-01  -2.1444890598129449e-01  -2.1526972165788219e-01  -2.1554692437537987e-01  -2.1526972165788244e-01  -2.1444890598129485e-01  -2.1311683264393841e-01  -2.1132735094466684e-01  -2.0915568006932139e-01  -2.0669821120592213e-01  -2.0407220215851699e-01  -2.0141531044953109e-01  -1.9888488998810938e-01  -1.9665696526663837e-01  -1.9913060537437299e-01  -2.0183712209515575e-01  -2.0480394928402701e-01  -2.0785145007384936e-01  -2.1081958165959075e-01  -2.1356877333560434e-01  -2.1598045025031010e-01  -2.1795733507448400e-01  -2.1942362560456771e-01  -2.2032510594997021e-01  -2.2062921847660982e-01  -2.2032510594997051e-01  -2.1942362560456813e-01  -2.1795733507448445e-01  -2.1598045025031054e-01  -2.1356877333560473e-01  -2.1081958165959105e-01  -2.0785145007384967e-01  -2.0480394928402729e-01  -2.0183712209515589e-01  -1.9913060537437299e-01  -2.0264606149254677e-01  -2.0602904373411360e-01  -2.0961191451757205e-01  -2.1321006719326288e-01  -2.1665989202298733e-01  -2.1981938136319548e-01  -2.2256834164648559e-01  -2.2480843179912033e-01  -2.2646315541252204e-01  -2.2747785806082130e-01  -2.2781973763111862e-01  -2.2747785806082160e-01  -2.2646315541252243e-01  -2.2480843179912074e-01  -2.2256834164648603e-01  -2.1981938136319590e-01  -2.1665989202298774e-01  -2.1321006719326316e-01  -2.0961191451757238e-01  -2.0602904373411376e-01  -2.0264606149254677e-01  -2.0725727954510009e-01  -2.1152107683117988e-01  -2.1590459785888488e-01  -2.2021701215864270e-01  -2.2429053787590039e-01  -2.2798051844770470e-01  -2.3116510317331676e-01  -2.3374489506298957e-01  -2.3564270618557898e-01  -2.3680343324967437e-01  -2.3719401592622180e-01  -2.3680343324967446e-01  -2.3564270618557928e-01  -2.3374489506298982e-01  -2.3116510317331707e-01  -2.2798051844770506e-01  -2.2429053787590078e-01  -2.2021701215864292e-01  -2.1590459785888511e-01  -2.1152107683117996e-01  -2.0725727954510009e-01  -2.1303594724155284e-01  -2.1839338618662085e-01  -2.2376838792814502e-01  -2.2896284570652253e-01  -2.3380472887426704e-01  -2.3814705137840622e-01  -2.4186665753608705e-01  -2.4486333909394192e-01  -2.4705934101713004e-01  -2.4839915282607511e-01  -2.4884945957441967e-01  -2.4839915282607511e-01  -2.4705934101713017e-01  -2.4486333909394215e-01  -2.4186665753608733e-01  -2.3814705137840650e-01  -2.3380472887426729e-01  -2.2896284570652270e-01  -2.2376838792814510e-01  -2.1839338618662094e-01  -2.1303594724155284e-01  -2.2007335395855529e-01  -2.2674813274560562e-01  -2.3331272196055164e-01  -2.3956125386503524e-01  -2.4531848053623878e-01  -2.5043630065556605e-01  -2.5479113649868323e-01  -2.5828246275956102e-01  -2.6083216596292386e-01  -2.6238437746307602e-01  -2.6290551671930673e-01  -2.6238437746307619e-01  -2.6083216596292402e-01  -2.5828246275956135e-01  -2.5479113649868362e-01  -2.5043630065556638e-01  -2.4531848053623909e-01  -2.3956125386503541e-01  -2.3331272196055186e-01  -2.2674813274560579e-01  -2.2007335395855529e-01  -2.2848279631780705e-01  -2.3671306887669474e-01  -2.4467311330342090e-01  -2.5215096725682790e-01  -2.5897163875008700e-01  -2.6498853420893614e-01  -2.7007912504351922e-01  -2.7414320948269516e-01  -2.7710248261192866e-01  -2.7890067434399873e-01  -2.7950385237665487e-01  -2.7890067434399879e-01  -2.7710248261192877e-01  -2.7414320948269538e-01  -2.7007912504351939e-01  -2.6498853420893625e-01  -2.5897163875008711e-01  -2.5215096725682795e-01  -2.4467311330342104e-01  -2.3671306887669485e-01  -2.2848279631780705e-01  -2.3840261828315656e-01  -2.4844823313994543e-01  -2.5801569511960926e-01  -2.6689786310876812e-01  -2.7492857299834489e-01  -2.8196707238657204e-01  -2.8789361998376206e-01  -2.9260876751577147e-01  -2.9603388065809655e-01  -2.9811198492433516e-01  -2.9880854409931518e-01  -2.9811198492433527e-01  -2.9603388065809672e-01  -2.9260876751577164e-01  -2.8789361998376223e-01  -2.8196707238657215e-01  -2.7492857299834506e-01  -2.6689786310876823e-01  -2.5801569511960937e-01  -2.4844823313994552e-01  -2.3840261828315656e-01  -2.5000000000000000e-01  -2.6216155028032129e-01  -2.7354357092630260e-01  -2.8399621706029049e-01  -2.9337771774795257e-01  -3.0155756235524517e-01  -3.0841951498918579e-01  -3.1386435993853212e-01  -3.1781228758035118e-01  -3.2020484059593046e-01  -3.2100635417193535e-01  -3.2020484059593046e-01  -3.1781228758035118e-01  -3.1386435993853212e-01  -3.0841951498918579e-01  -3.0155756235524517e-01  -2.9337771774795257e-01  -2.8399621706029049e-01  -2.7354357092630260e-01  -2.6216155028032129e-01  -2.5000000000000000e-01  </DataArray> 
</PointData> 
</Piece>
</UnstructuredGrid>
</VTKFile>